# Residuals  
# Time       	p            
0.00012      	1.000000e+00
0.000264     	2.247700e-01
0.0004368    	3.042620e-03
0.00064416   	2.102490e-04
0.000892992  	1.309810e-05
0.00119159   	1.455880e-06
0.00154991   	3.701320e-07
0.00197989   	3.341630e-07
0.00249587   	3.905000e-07
0.00311504   	4.676920e-07
0.00385805   	5.611480e-07
0.00474966   	6.733700e-07
0.00581959   	8.080430e-07
0.00710351   	9.696520e-07
0.00864421   	1.163580e-06
0.0104931    	1.396300e-06
0.0127117    	1.675560e-06
0.015374     	2.010670e-06
0.0185688    	2.412810e-06
0.0224026    	2.895380e-06
0.0270031    	3.474460e-06
0.0325237    	4.169370e-06
0.0391484    	5.003260e-06
0.0470981    	6.003940e-06
0.0566377    	7.204760e-06
0.0680853    	8.645770e-06
0.0818223    	1.037500e-05
0.0983068    	1.245010e-05
0.118088     	1.494030e-05
0.141826     	1.792860e-05
0.170311     	2.151470e-05
0.204493     	2.581810e-05
0.245512     	3.098250e-05
0.294734     	3.718000e-05
0.353801     	4.461750e-05
0.424681     	5.354310e-05
0.509737     	6.425480e-05
0.611804     	7.711030e-05
0.734284     	9.253870e-05
0.881261     	1.110560e-04
1.05763      	1.332800e-04
1.26928      	1.599550e-04
1.52325      	1.919730e-04
1.82802      	2.304070e-04
2.19374      	2.765450e-04
2.6326       	3.319360e-04
3.15924      	3.984390e-04
3.7912       	4.782960e-04
4.54954      	5.741990e-04
5.45955      	6.893860e-04
6.55155      	8.277600e-04
7.86193      	9.940270e-04
9.43439      	1.193870e-03
11.3213      	1.434120e-03
13.5856      	1.722980e-03
16.3026      	2.070330e-03
19.563       	2.488310e-03
23.4754      	2.991540e-03
28.17        	3.597750e-03
33.8034      	4.328530e-03
40.5635      	5.210040e-03
48.6754      	6.274010e-03
58.4095      	7.558930e-03
70.0899      	9.111010e-03
84.1045      	1.098480e-02
100.92       	1.324600e-02
121.098      	1.596650e-02
145.306      	1.921620e-02
174.348      	2.304650e-02
209.187      	2.744000e-02
250.987      	3.220030e-02
301.131      	3.667470e-02
361.298      	3.928740e-02
433.479      	3.684270e-02
520.051      	2.516040e-02
623.896      	6.105130e-03
748.39       	2.784170e-02
897.609      	4.547920e-02
1076.48      	5.552960e-02
1290.86      	6.235560e-02
1547.99      	6.869540e-02
1855.43      	7.453080e-02
2223.01      	7.740810e-02
2663.73      	7.036430e-02
3177.45      	4.225400e-02
3747.47      	4.593420e-02
4364.28      	6.739610e-02
5053.65      	8.055640e-02
5835.83      	8.661360e-02
6730.99      	8.235890e-02
7714.55      	6.583470e-02
8579.23      	4.821670e-02
9539.98      	6.149250e-02
10607.5      	7.936290e-02
11791.7      	8.807730e-02
13124        	7.671020e-02
14217.7      	5.439990e-02
15328.2      	5.445680e-02
16553.6      	6.342720e-02
17896.8      	7.605900e-02
19354.3      	7.625590e-02
20530.5      	5.778530e-02
21728.2      	5.707540e-02
23048        	5.992910e-02
24487.8      	6.451990e-02
26035.6      	6.643250e-02
27472.9      	5.941540e-02
28782.4      	6.056660e-02
30187.7      	6.326040e-02
31666.9      	6.283010e-02
33230.7      	6.028340e-02
34794.5      	5.373230e-02
36189.3      	5.142810e-02
37666.1      	6.073460e-02
39189        	6.558820e-02
40875.1      	6.507420e-02
42561.2      	5.322220e-02
44126.9      	4.962980e-02
45636.6      	5.274070e-02
47267.2      	5.978850e-02
48968.6      	6.517800e-02
50751        	6.107930e-02
52448.6      	4.953830e-02
53991.9      	4.458440e-02
55612.3      	5.225080e-02
57322.7      	5.800500e-02
59140        	6.114270e-02
60957.4      	5.628590e-02
62774.7      	5.192550e-02
64462.2      	4.767120e-02
66290.4      	5.241020e-02
68118.5      	5.561540e-02
69946.7      	5.468700e-02
71774.8      	5.028910e-02
73603        	5.048730e-02
75431.1      	5.182420e-02
77259.3      	5.101410e-02
79087.4      	5.020390e-02
80915.6      	4.831650e-02
82743.7      	4.486360e-02
84571.9      	4.622510e-02
86400        	4.902030e-02
88363.6      	5.421790e-02
90327.3      	5.382790e-02
92290.9      	4.885180e-02
94254.5      	4.378740e-02
96218.2      	4.345770e-02
98181.8      	4.639460e-02
100145       	4.984700e-02
102109       	5.158480e-02
104073       	5.022430e-02
106036       	4.501450e-02
108000       	4.187760e-02
109964       	4.187630e-02
111927       	4.386060e-02
113891       	4.587700e-02
115855       	4.675430e-02
117818       	4.542560e-02
119782       	4.246480e-02
121745       	4.143990e-02
123709       	4.194640e-02
125673       	4.271700e-02
127636       	4.303000e-02
129600       	4.299150e-02
131564       	4.156880e-02
133527       	3.921650e-02
135491       	3.898250e-02
137455       	3.980500e-02
139418       	4.090910e-02
141382       	4.186310e-02
143345       	4.247080e-02
145309       	4.058970e-02
147273       	3.811110e-02
149236       	3.594630e-02
151200       	3.642060e-02
153164       	3.717690e-02
155127       	3.860760e-02
157091       	3.924240e-02
159055       	3.994090e-02
161018       	3.942140e-02
162982       	3.746860e-02
164945       	3.463330e-02
166909       	3.431070e-02
168873       	3.531520e-02
170836       	3.659960e-02
172800       	3.804720e-02
174563       	3.425120e-02
176131       	2.980150e-02
177409       	2.527170e-02
178629       	2.454780e-02
179850       	2.460990e-02
181110       	2.481800e-02
182411       	2.475360e-02
183758       	2.443930e-02
185155       	2.435840e-02
186502       	2.457460e-02
187823       	2.533010e-02
189196       	2.700680e-02
190625       	2.833440e-02
192149       	2.927930e-02
193546       	2.627790e-02
194859       	2.494290e-02
196172       	2.574190e-02
197513       	2.695710e-02
198447       	1.929210e-02
199247       	1.590770e-02
199928       	1.345990e-02
200545       	1.233070e-02
201150       	1.213280e-02
201761       	1.229030e-02
202386       	1.254350e-02
203024       	1.268960e-02
203685       	1.280000e-02
204362       	1.305420e-02
205047       	1.372250e-02
205724       	1.395540e-02
206410       	1.434780e-02
207133       	1.495770e-02
207837       	1.430870e-02
208495       	1.318120e-02
209145       	1.343530e-02
209804       	1.397360e-02
210471       	1.449070e-02
211148       	1.470690e-02
211835       	1.461760e-02
212541       	1.463210e-02
213270       	1.519430e-02
213988       	1.529100e-02
214729       	1.632320e-02
215470       	1.645090e-02
216238       	1.645470e-02
216991       	1.553450e-02
217672       	1.413950e-02
218342       	1.403050e-02
219023       	1.452000e-02
219716       	1.493870e-02
220434       	1.530030e-02
221138       	1.461130e-02
221830       	1.436950e-02
222536       	1.494590e-02
223254       	1.558020e-02
224003       	1.644710e-02
224768       	1.649170e-02
225551       	1.613200e-02
226299       	1.517230e-02
226999       	1.458640e-02
227684       	1.470140e-02
228384       	1.531590e-02
229101       	1.560930e-02
229835       	1.567800e-02
230608       	1.594920e-02
231360       	1.597630e-02
232093       	1.627430e-02
232825       	1.689530e-02
233579       	1.754090e-02
234355       	1.765350e-02
235157       	1.719110e-02
235958       	1.664240e-02
236663       	1.517840e-02
237367       	1.568510e-02
238071       	1.597160e-02
238775       	1.586780e-02
239505       	1.593740e-02
240262       	1.560340e-02
241051       	1.646440e-02
241841       	1.729550e-02
242630       	1.809570e-02
243419       	1.852640e-02
244170       	1.746920e-02
244922       	1.644770e-02
245673       	1.612070e-02
246385       	1.557910e-02
247097       	1.594490e-02
247809       	1.600990e-02
248521       	1.600820e-02
249284       	1.648160e-02
250046       	1.563450e-02
250809       	1.584130e-02
251572       	1.656740e-02
252335       	1.726890e-02
253098       	1.768360e-02
253860       	1.755770e-02
254623       	1.694870e-02
255386       	1.630630e-02
256149       	1.682970e-02
256759       	1.404660e-02
257369       	1.423880e-02
257980       	1.428380e-02
258590       	1.395800e-02
259200       	1.345180e-02
259886       	1.412860e-02
260651       	1.559990e-02
261468       	1.734250e-02
262277       	1.824610e-02
263110       	1.942480e-02
263988       	2.044570e-02
264894       	2.004470e-02
265811       	1.994810e-02
266571       	1.741380e-02
267303       	1.736990e-02
268042       	1.775230e-02
268795       	1.784310e-02
269571       	1.742290e-02
270371       	1.699580e-02
271198       	1.783530e-02
272015       	1.844640e-02
272842       	1.915290e-02
273708       	2.008350e-02
274618       	2.027410e-02
275552       	1.960930e-02
276417       	1.871600e-02
277169       	1.712030e-02
277897       	1.687980e-02
278633       	1.693240e-02
279385       	1.666650e-02
280155       	1.589740e-02
280953       	1.636710e-02
281772       	1.763540e-02
282580       	1.846440e-02
283409       	1.927420e-02
284285       	2.008170e-02
285200       	1.980230e-02
286129       	1.955330e-02
286922       	1.772070e-02
287665       	1.738600e-02
288398       	1.752140e-02
289141       	1.776720e-02
289904       	1.736740e-02
290688       	1.689390e-02
291508       	1.781990e-02
292328       	1.878400e-02
293147       	1.944160e-02
293993       	2.028190e-02
294883       	2.093470e-02
295805       	2.056890e-02
296679       	1.970290e-02
297468       	1.865370e-02
298208       	1.772630e-02
298937       	1.726650e-02
299678       	1.686280e-02
300431       	1.583260e-02
301210       	1.588390e-02
302017       	1.680600e-02
302824       	1.790020e-02
303631       	1.842940e-02
304487       	1.957680e-02
305381       	1.938870e-02
306295       	1.912230e-02
307132       	1.793650e-02
307901       	1.748230e-02
308626       	1.695750e-02
309351       	1.708640e-02
310091       	1.693720e-02
310846       	1.657100e-02
311636       	1.736600e-02
312445       	1.843910e-02
313253       	1.921010e-02
314062       	1.947210e-02
314914       	1.984420e-02
315817       	1.968030e-02
316693       	1.941090e-02
317519       	1.921880e-02
318299       	1.894410e-02
319017       	1.814370e-02
319736       	1.790510e-02
320454       	1.708600e-02
321194       	1.697380e-02
321956       	1.731060e-02
322745       	1.780240e-02
323533       	1.838760e-02
324321       	1.859840e-02
325139       	1.870690e-02
325992       	1.871650e-02
326844       	1.890080e-02
327660       	1.873900e-02
328440       	1.884270e-02
329155       	1.738730e-02
329870       	1.677080e-02
330585       	1.573170e-02
331300       	1.540050e-02
332052       	1.635340e-02
332805       	1.705150e-02
333605       	1.857810e-02
334404       	1.890230e-02
335204       	1.843840e-02
336070       	1.949530e-02
336865       	1.853130e-02
337659       	1.907150e-02
338453       	1.930870e-02
339168       	1.766630e-02
339882       	1.729620e-02
340518       	1.495320e-02
341153       	1.503330e-02
341788       	1.513750e-02
342423       	1.546830e-02
343059       	1.549750e-02
343694       	1.571940e-02
344329       	1.558000e-02
344965       	1.495380e-02
345600       	1.459710e-02
346320       	1.645910e-02
347121       	1.868560e-02
347929       	1.946720e-02
348745       	2.035070e-02
349482       	1.826880e-02
350181       	1.679110e-02
350887       	1.692590e-02
351605       	1.744100e-02
352342       	1.818810e-02
353101       	1.883370e-02
353882       	1.880710e-02
354663       	1.816390e-02
355469       	1.839560e-02
356283       	1.945600e-02
357088       	2.000390e-02
357885       	2.021740e-02
358700       	2.041520e-02
359471       	1.865810e-02
360176       	1.681960e-02
360866       	1.670920e-02
361570       	1.721810e-02
362289       	1.791830e-02
363031       	1.857470e-02
363789       	1.849590e-02
364555       	1.818770e-02
365339       	1.871130e-02
366114       	1.925040e-02
366908       	2.024600e-02
367692       	2.000290e-02
368486       	1.952770e-02
369252       	1.823090e-02
369957       	1.721610e-02
370638       	1.749100e-02
371320       	1.799220e-02
372018       	1.864770e-02
372732       	1.882310e-02
373463       	1.811300e-02
374204       	1.784220e-02
374965       	1.833930e-02
375746       	1.942340e-02
376528       	2.011340e-02
377298       	2.001480e-02
378027       	1.830410e-02
378788       	1.878290e-02
379548       	1.937130e-02
380238       	1.852660e-02
380910       	1.865800e-02
381582       	1.855870e-02
382273       	1.825010e-02
382983       	1.765310e-02
383704       	1.775270e-02
384447       	1.903090e-02
385179       	1.960190e-02
385888       	1.956500e-02
386620       	1.945160e-02
387364       	1.829620e-02
388134       	1.840880e-02
388877       	1.878280e-02
389573       	1.857240e-02
390246       	1.849350e-02
390899       	1.738190e-02
391561       	1.631990e-02
392235       	1.658540e-02
392921       	1.764540e-02
393607       	1.897470e-02
394318       	1.998400e-02
395056       	2.010110e-02
395795       	1.789570e-02
396550       	1.813140e-02
397218       	1.759210e-02
397914       	1.919260e-02
398655       	2.074630e-02
399380       	1.961450e-02
400060       	1.716030e-02
400698       	1.664650e-02
401337       	1.778470e-02
401990       	1.864690e-02
402657       	1.897700e-02
403339       	1.853330e-02
404038       	1.734850e-02
404704       	1.682300e-02
405369       	1.793900e-02
406070       	1.979320e-02
406791       	2.062580e-02
407532       	2.012760e-02
408252       	1.829490e-02
408894       	1.685870e-02
409554       	1.815150e-02
410195       	1.808740e-02
410818       	1.780470e-02
411441       	1.702240e-02
412083       	1.700240e-02
412726       	1.728380e-02
413391       	1.867080e-02
414080       	1.987460e-02
414769       	1.964240e-02
415458       	1.867210e-02
416120       	1.744650e-02
416755       	1.685220e-02
417418       	1.787460e-02
418112       	1.916450e-02
418807       	1.897550e-02
419501       	1.850410e-02
420126       	1.712120e-02
420751       	1.765780e-02
421376       	1.807130e-02
422001       	1.788850e-02
422626       	1.759830e-02
423251       	1.697900e-02
423876       	1.703260e-02
424501       	1.729970e-02
425126       	1.782370e-02
425751       	1.822670e-02
426376       	1.792750e-02
427000       	1.755380e-02
427625       	1.777370e-02
428250       	1.799870e-02
428875       	1.784410e-02
429500       	1.765100e-02
430125       	1.737860e-02
430594       	1.307130e-02
431063       	1.318080e-02
431531       	1.322700e-02
432000       	1.348160e-02
432530       	1.541670e-02
433122       	1.723460e-02
433768       	1.829780e-02
434419       	1.815090e-02
435032       	1.755630e-02
435641       	1.745780e-02
436268       	1.761720e-02
436904       	1.783130e-02
437541       	1.737880e-02
438183       	1.747240e-02
438782       	1.684370e-02
439385       	1.773450e-02
440002       	1.831710e-02
440610       	1.794400e-02
441213       	1.748980e-02
441825       	1.779510e-02
442410       	1.699120e-02
443004       	1.724430e-02
443607       	1.756610e-02
444215       	1.742710e-02
444823       	1.701370e-02
445446       	1.785080e-02
446016       	1.703960e-02
446600       	1.764610e-02
447189       	1.787530e-02
447782       	1.766590e-02
448376       	1.710450e-02
448969       	1.672490e-02
449520       	1.595030e-02
450089       	1.670670e-02
450654       	1.670590e-02
451228       	1.648780e-02
451812       	1.702470e-02
452362       	1.670070e-02
452891       	1.640760e-02
453441       	1.719680e-02
453987       	1.707010e-02
454533       	1.618750e-02
455108       	1.644660e-02
455615       	1.496620e-02
456113       	1.500770e-02
456636       	1.554590e-02
457160       	1.556130e-02
457679       	1.526250e-02
458221       	1.607820e-02
458691       	1.456420e-02
459161       	1.480810e-02
459655       	1.538730e-02
460175       	1.547250e-02
460668       	1.449290e-02
461166       	1.449580e-02
461603       	1.307650e-02
462046       	1.324710e-02
462512       	1.357830e-02
463007       	1.428680e-02
463440       	1.292970e-02
463872       	1.326440e-02
464319       	1.373920e-02
464752       	1.320780e-02
465195       	1.365700e-02
465586       	1.253830e-02
465975       	1.261220e-02
466378       	1.267450e-02
466804       	1.252390e-02
467224       	1.156140e-02
467556       	9.671880e-03
467876       	9.793700e-03
468198       	1.015610e-02
468530       	1.047670e-02
468874       	1.051840e-02
469228       	1.026050e-02
469551       	9.341030e-03
469863       	9.078900e-03
470176       	9.256850e-03
470497       	9.695770e-03
470828       	1.009360e-02
471167       	1.050490e-02
471517       	1.073980e-02
471878       	1.078070e-02
472244       	1.061800e-02
472620       	1.058530e-02
472998       	1.070000e-02
473379       	1.074870e-02
473764       	1.078570e-02
474152       	1.112160e-02
474544       	1.123820e-02
474939       	1.130400e-02
475338       	1.118130e-02
475740       	1.117500e-02
476143       	1.135360e-02
476549       	1.160790e-02
476955       	1.184910e-02
477362       	1.199340e-02
477768       	1.189690e-02
478178       	1.184060e-02
478589       	1.148050e-02
479003       	1.119220e-02
479418       	1.099390e-02
479833       	1.116550e-02
480248       	1.135620e-02
480667       	1.162610e-02
481086       	1.194580e-02
481505       	1.218040e-02
481925       	1.222700e-02
482344       	1.206540e-02
482768       	1.188950e-02
483192       	1.166180e-02
483616       	1.152440e-02
484041       	1.152290e-02
484465       	1.159940e-02
484889       	1.161500e-02
485313       	1.162220e-02
485737       	1.164070e-02
486167       	1.174120e-02
486597       	1.165080e-02
487027       	1.142960e-02
487456       	1.141510e-02
487886       	1.145880e-02
488316       	1.154200e-02
488746       	1.161250e-02
489176       	1.173200e-02
489605       	1.176480e-02
490035       	1.167160e-02
490465       	1.155200e-02
490895       	1.136700e-02
491324       	1.109250e-02
491754       	1.097080e-02
492191       	1.114190e-02
492628       	1.132870e-02
493065       	1.160890e-02
493501       	1.178640e-02
493938       	1.184890e-02
494375       	1.183120e-02
494812       	1.182480e-02
495249       	1.174290e-02
495686       	1.155360e-02
496122       	1.131150e-02
496559       	1.114910e-02
496996       	1.119570e-02
497433       	1.122930e-02
497870       	1.134160e-02
498306       	1.145010e-02
498743       	1.160510e-02
499180       	1.171670e-02
499617       	1.165350e-02
500054       	1.155680e-02
500491       	1.139200e-02
500927       	1.114360e-02
501364       	1.105980e-02
501801       	1.114740e-02
502238       	1.121840e-02
502675       	1.133630e-02
503111       	1.143730e-02
503548       	1.152430e-02
503985       	1.160380e-02
504422       	1.166900e-02
504859       	1.168940e-02
505295       	1.158160e-02
505732       	1.132180e-02
506169       	1.105740e-02
506606       	1.101040e-02
507043       	1.107550e-02
507480       	1.119140e-02
507916       	1.142810e-02
508353       	1.165440e-02
508790       	1.177910e-02
509227       	1.181010e-02
509664       	1.182600e-02
510100       	1.185360e-02
510537       	1.175540e-02
510974       	1.160220e-02
511411       	1.142790e-02
511848       	1.124670e-02
512285       	1.127030e-02
512721       	1.137470e-02
513158       	1.144790e-02
513595       	1.152730e-02
514032       	1.176070e-02
514469       	1.193010e-02
514905       	1.198880e-02
515342       	1.187840e-02
515779       	1.169770e-02
516216       	1.150320e-02
516653       	1.126510e-02
517090       	1.116370e-02
517526       	1.098950e-02
517963       	1.094920e-02
518400       	1.105210e-02
518855       	1.157200e-02
519309       	1.155570e-02
519764       	1.155510e-02
520219       	1.174490e-02
520674       	1.181450e-02
521131       	1.176480e-02
521588       	1.164190e-02
522045       	1.142860e-02
522503       	1.118120e-02
522960       	1.119400e-02
523417       	1.121000e-02
523874       	1.121190e-02
524331       	1.141170e-02
524789       	1.160440e-02
525248       	1.173220e-02
525708       	1.167490e-02
526168       	1.156240e-02
526628       	1.146470e-02
527088       	1.123620e-02
527548       	1.100860e-02
528007       	1.091030e-02
528467       	1.068530e-02
528927       	1.072120e-02
529387       	1.087330e-02
529850       	1.103400e-02
530312       	1.107740e-02
530775       	1.119030e-02
531238       	1.123690e-02
531700       	1.123310e-02
532163       	1.115790e-02
532626       	1.097320e-02
533088       	1.078670e-02
533551       	1.065970e-02
534013       	1.061430e-02
534479       	1.059650e-02
534945       	1.066910e-02
535411       	1.092950e-02
535876       	1.109110e-02
536342       	1.116980e-02
536808       	1.123100e-02
537273       	1.124570e-02
537739       	1.119120e-02
538205       	1.100690e-02
538670       	1.076940e-02
539136       	1.068080e-02
539605       	1.071200e-02
540074       	1.066940e-02
540543       	1.067740e-02
541012       	1.085190e-02
541481       	1.105400e-02
541950       	1.113110e-02
542419       	1.119020e-02
542888       	1.116030e-02
543357       	1.108870e-02
543826       	1.088490e-02
544299       	1.064770e-02
544772       	1.045660e-02
545244       	1.038500e-02
545717       	1.041730e-02
546190       	1.043330e-02
546662       	1.056660e-02
547135       	1.079580e-02
547608       	1.098350e-02
548080       	1.105890e-02
548553       	1.099030e-02
549026       	1.088020e-02
549502       	1.080130e-02
549979       	1.043520e-02
550456       	1.021550e-02
550933       	1.015300e-02
551409       	1.027050e-02
551886       	1.043340e-02
552363       	1.060860e-02
552839       	1.074100e-02
553316       	1.082230e-02
553793       	1.078610e-02
554269       	1.071190e-02
554746       	1.056740e-02
555227       	1.043330e-02
555709       	1.019890e-02
556190       	1.008790e-02
556671       	9.979340e-03
557153       	1.006720e-02
557634       	1.016540e-02
558115       	1.028620e-02
558596       	1.035970e-02
559078       	1.034880e-02
559559       	1.020420e-02
560040       	9.969830e-03
560522       	9.829310e-03
561003       	9.749890e-03
561484       	9.744900e-03
561965       	9.738280e-03
562452       	9.866260e-03
562939       	9.965740e-03
563426       	1.004500e-02
563913       	1.018930e-02
564399       	1.030050e-02
564886       	1.032920e-02
565373       	1.036270e-02
565860       	1.025480e-02
566346       	1.007410e-02
566833       	9.979350e-03
567320       	9.857110e-03
567807       	9.774450e-03
568293       	9.808940e-03
568780       	9.882010e-03
569267       	9.898760e-03
569754       	9.933160e-03
570240       	1.002080e-02
570727       	1.002590e-02
571221       	1.014930e-02
571715       	1.005820e-02
572209       	9.974940e-03
572702       	9.913320e-03
573196       	9.841990e-03
573690       	9.954300e-03
574184       	1.007050e-02
574678       	1.015450e-02
575171       	1.029420e-02
575665       	1.035430e-02
576159       	1.037940e-02
576653       	1.036690e-02
577147       	1.034890e-02
577640       	1.024830e-02
578134       	1.015310e-02
578628       	1.003830e-02
579122       	9.855040e-03
579616       	9.795780e-03
580109       	9.885660e-03
580603       	9.937700e-03
581097       	1.002590e-02
581591       	1.006800e-02
582085       	1.008310e-02
582579       	1.007220e-02
583072       	1.006210e-02
583566       	1.002630e-02
584060       	9.980510e-03
584554       	9.882840e-03
585048       	9.838250e-03
585541       	9.776280e-03
586035       	9.730090e-03
586529       	9.770620e-03
587023       	9.836350e-03
587517       	9.916960e-03
588010       	9.919640e-03
588504       	9.819370e-03
588998       	9.734870e-03
589492       	9.678320e-03
589986       	9.588520e-03
590480       	9.476530e-03
590973       	9.392120e-03
591467       	9.287940e-03
591961       	9.273180e-03
592455       	9.354190e-03
592949       	9.413100e-03
593442       	9.470570e-03
593936       	9.483510e-03
594430       	9.415880e-03
594924       	9.314550e-03
595418       	9.297110e-03
595911       	9.263150e-03
596405       	9.280230e-03
596899       	9.305400e-03
597393       	9.287670e-03
597887       	9.235360e-03
598380       	9.352710e-03
598874       	9.413520e-03
599368       	9.453360e-03
599862       	9.508450e-03
600356       	9.479860e-03
600850       	9.409200e-03
601343       	9.454510e-03
601837       	9.449340e-03
602331       	9.443170e-03
602825       	9.393990e-03
603319       	9.289780e-03
603812       	9.213170e-03
604306       	9.243600e-03
604800       	9.269650e-03
605320       	9.755570e-03
605841       	9.806690e-03
606361       	9.773500e-03
606882       	9.686420e-03
607402       	9.722890e-03
607923       	9.844430e-03
608443       	1.001550e-02
608967       	1.018330e-02
609491       	1.023130e-02
610015       	1.031130e-02
610538       	1.043420e-02
611062       	1.047120e-02
611586       	1.044700e-02
612110       	1.034530e-02
612634       	1.019390e-02
613161       	1.018380e-02
613688       	1.021340e-02
614215       	1.020820e-02
614743       	1.019600e-02
615270       	1.015390e-02
615797       	1.011930e-02
616325       	1.016090e-02
616852       	1.014140e-02
617379       	1.010780e-02
617910       	1.007690e-02
618441       	9.899230e-03
618972       	9.826170e-03
619504       	9.846080e-03
620035       	9.870450e-03
620566       	9.855740e-03
621097       	9.893820e-03
621628       	9.902710e-03
622159       	9.898440e-03
622690       	9.857330e-03
623225       	9.862830e-03
623761       	9.809070e-03
624296       	9.681210e-03
624831       	9.602540e-03
625366       	9.645200e-03
625901       	9.619860e-03
626437       	9.572850e-03
626972       	9.561310e-03
627507       	9.579640e-03
628042       	9.621450e-03
628578       	9.648840e-03
629113       	9.621080e-03
629653       	9.662480e-03
630193       	9.595440e-03
630733       	9.619090e-03
631272       	9.630020e-03
631812       	9.673400e-03
632352       	9.715210e-03
632892       	9.728660e-03
633432       	9.654280e-03
633972       	9.636780e-03
634512       	9.687130e-03
635052       	9.683540e-03
635592       	9.600660e-03
636137       	9.737600e-03
636682       	9.885900e-03
637227       	9.966460e-03
637772       	1.003780e-02
638317       	1.014910e-02
638863       	1.023980e-02
639408       	1.020370e-02
639953       	1.020520e-02
640498       	1.021860e-02
641043       	1.020610e-02
641589       	1.009320e-02
642134       	1.002930e-02
642679       	1.002560e-02
643224       	1.000710e-02
643776       	1.008980e-02
644327       	1.013530e-02
644878       	1.023730e-02
645430       	1.025750e-02
645981       	1.023620e-02
646533       	1.022390e-02
647084       	1.018930e-02
647636       	1.014840e-02
648187       	1.018160e-02
648739       	1.020400e-02
649290       	1.021200e-02
649841       	1.020540e-02
650393       	1.021310e-02
650944       	1.025670e-02
651496       	1.016530e-02
652047       	1.003260e-02
652599       	9.858170e-03
653150       	9.748980e-03
653702       	9.754920e-03
654253       	9.778080e-03
654813       	9.905610e-03
655373       	9.924410e-03
655932       	1.000700e-02
656492       	1.001340e-02
657052       	1.003530e-02
657612       	1.006190e-02
658172       	1.001710e-02
658731       	9.898560e-03
659291       	9.915950e-03
659851       	9.901470e-03
660411       	9.794970e-03
660971       	9.740490e-03
661530       	9.717800e-03
662090       	9.750530e-03
662650       	9.714000e-03
663210       	9.670670e-03
663770       	9.712010e-03
664329       	9.644630e-03
664889       	9.557470e-03
665449       	9.637220e-03
666009       	9.696370e-03
666569       	9.657920e-03
667128       	9.719550e-03
667688       	9.881580e-03
668248       	9.934590e-03
668808       	9.933810e-03
669368       	9.992880e-03
669927       	1.002610e-02
670487       	9.995780e-03
671047       	1.000640e-02
671607       	1.008560e-02
672167       	1.010480e-02
672727       	1.001550e-02
673286       	9.979680e-03
673846       	1.003580e-02
674406       	1.004720e-02
674966       	9.950600e-03
675526       	9.990650e-03
676085       	9.923750e-03
676645       	9.918770e-03
677205       	9.951700e-03
677765       	1.001770e-02
678325       	1.002800e-02
678884       	9.979200e-03
679444       	9.991670e-03
680004       	1.007220e-02
680564       	1.000720e-02
681124       	9.897940e-03
681683       	9.900870e-03
682243       	9.840150e-03
682803       	9.751310e-03
683363       	9.806810e-03
683923       	9.835870e-03
684482       	9.841740e-03
685042       	9.844350e-03
685602       	9.898080e-03
686162       	9.888460e-03
686722       	9.799350e-03
687281       	9.751360e-03
687841       	9.786390e-03
688401       	9.814800e-03
688961       	9.806360e-03
689521       	9.943740e-03
690080       	9.987190e-03
690640       	9.989730e-03
691200       	1.003180e-02
691788       	1.046640e-02
692376       	1.030860e-02
692963       	1.011390e-02
693551       	1.004760e-02
694139       	1.003270e-02
694727       	9.960260e-03
695314       	1.000120e-02
695902       	1.008660e-02
696490       	1.010880e-02
697078       	1.025430e-02
697670       	1.041180e-02
698262       	1.038020e-02
698854       	1.030970e-02
699446       	1.024650e-02
700038       	1.023030e-02
700630       	1.019140e-02
701222       	1.021950e-02
701814       	1.026560e-02
702406       	1.029400e-02
702998       	1.032160e-02
703590       	1.035840e-02
704187       	1.038210e-02
704784       	1.032090e-02
705381       	1.029930e-02
705978       	1.028100e-02
706575       	1.029450e-02
707172       	1.028170e-02
707768       	1.034200e-02
708365       	1.041590e-02
708962       	1.047860e-02
709559       	1.055390e-02
710156       	1.050350e-02
710753       	1.047420e-02
711355       	1.057090e-02
711957       	1.047290e-02
712559       	1.036880e-02
713162       	1.023890e-02
713764       	1.020030e-02
714366       	1.018270e-02
714968       	1.017260e-02
715570       	1.020730e-02
716173       	1.019810e-02
716775       	1.032870e-02
717377       	1.041590e-02
717979       	1.038160e-02
718582       	1.043470e-02
719184       	1.036300e-02
719792       	1.049800e-02
720401       	1.047960e-02
721009       	1.047650e-02
721618       	1.047830e-02
722226       	1.047180e-02
722835       	1.058080e-02
723443       	1.059060e-02
724052       	1.058720e-02
724660       	1.053600e-02
725269       	1.044310e-02
725877       	1.040770e-02
726486       	1.028190e-02