/*--------------------------------*- C++ -*----------------------------------*\
| =========                 |                                                 |
| \\      /  F ield         | OpenFOAM: The Open Source CFD Toolbox           |
|  \\    /   O peration     | Version:  4.1                                   |
|   \\  /    A nd           | Web:      www.OpenFOAM.org                      |
|    \\/     M anipulation  |                                                 |
\*---------------------------------------------------------------------------*/
FoamFile
{
    version     2.0;
    format      ascii;
    class       volScalarField;
    location    "0";
    object      water.alpha;
}
// * * * * * * * * * * * * * * * * * * * * * * * * * * * * * * * * * * * * * //

dimensions      [0 0 0 0 0 0 0];

internalField   nonuniform 
100(
0.1601
0.16656364
0.17302727
0.17949091
0.18595455
0.19241818
0.19888182
0.20534545
0.21180909
0.21827273
0.22473636
0.2312
0.23766364
0.24412727
0.25059091
0.25705455
0.26351818
0.26998182
0.27644545
0.28290909
0.28937273
0.29583636
0.3023
0.30876364
0.31522727
0.32169091
0.32815455
0.33461818
0.34108182
0.34754545
0.35400909
0.36047273
0.36693636
0.3734
0.37986364
0.38632727
0.39279091
0.39925455
0.40571818
0.41218182
0.41864545
0.42510909
0.43157273
0.43803636
0.4445
0.45096364
0.45742727
0.46389091
0.47035455
0.47681818
0.48328182
0.48974545
0.49620909
0.50267273
0.50913636
0.5156
0.52206364
0.52852727
0.53499091
0.54145455
0.54791818
0.55438182
0.56084545
0.56730909
0.57377273
0.58023636
0.5867
0.59316364
0.59962727
0.60609091
0.61255455
0.61901818
0.62548182
0.63194545
0.63840909
0.64487273
0.65133636
0.6578
0.66426364
0.67072727
0.67719091
0.68365455
0.69011818
0.69658182
0.70304545
0.70950909
0.71597273
0.72243636
0.7289    
0.73536364
0.74182727
0.74829091
0.75475455
0.76121818
0.76768182
0.77414545
0.78060909
0.78707273
0.79353636
0.8 
);


boundaryField
{
    outlet
    {
        type            zeroGradient;
    }
    inlet
    {
        type            zeroGradient;
    }
    frontAndBack
    {
        type            empty;
    }
}


// ************************************************************************* //
