# Residuals  
# Time       	p            
0.0012       	1.000000e+00
0.00264      	3.528450e-01
0.004368     	2.496470e-02
0.0064416    	5.559720e-03
0.00892992   	1.882710e-03
0.0119159    	6.707700e-04
0.0154991    	2.536300e-04
0.0197989    	9.875360e-05
0.0249587    	2.977350e-03
0.0311504    	5.431110e-04
0.0385805    	9.577310e-05
0.0474966    	3.848640e-05
0.0581959    	1.805480e-05
0.0710351    	1.216910e-05
0.0864421    	1.077090e-05
0.104931     	1.142270e-05
0.127117     	1.309010e-05
0.15374      	1.545420e-05
0.185688     	1.843890e-05
0.224025     	2.208220e-05
0.270031     	2.648010e-05
0.325237     	3.176880e-05
0.391484     	3.812050e-05
0.47098      	4.574500e-05
0.566376     	5.489620e-05
0.680851     	6.587930e-05
0.818221     	7.906110e-05
0.983065     	9.488190e-05
1.18088      	1.138710e-04
1.41825      	1.366630e-04
1.7031       	1.640210e-04
2.04492      	1.968630e-04
2.4551       	2.362890e-04
2.94731      	2.836240e-04
3.53797      	3.404590e-04
4.24675      	4.087100e-04
5.09729      	4.906810e-04
6.11793      	5.891460e-04
7.34268      	7.074440e-04
8.81237      	8.496100e-04
10.576       	1.020490e-03
12.6923      	1.225990e-03
15.2318      	1.473050e-03
18.2792      	1.770310e-03
21.936       	2.128160e-03
26.324       	2.559090e-03
31.5894      	3.078430e-03
37.9075      	3.704650e-03
45.4891      	4.460500e-03
54.5868      	5.373100e-03
65.5027      	6.475120e-03
78.6016      	7.807080e-03
94.3192      	9.414970e-03
113.18       	1.135250e-02
135.809      	1.367450e-02
162.962      	1.643060e-02
195.541      	1.963380e-02
234.619      	2.319110e-02
281.499      	2.677870e-02
337.748      	2.951260e-02
405.195      	2.943930e-02
486.093      	2.342390e-02
583.062      	9.732370e-03
699.345      	1.443780e-02
838.696      	3.076920e-02
1005.81      	4.039530e-02
1206.26      	4.633910e-02
1446.25      	5.124820e-02
1733.25      	5.603130e-02
2077.43      	5.977140e-02
2488.76      	5.799270e-02
2979.46      	4.277550e-02
3528.28      	3.061470e-02
4111.89      	4.497190e-02
4759.82      	5.825330e-02
5488.76      	6.502220e-02
6322.89      	6.610780e-02
7276.19      	5.788650e-02
8145.68      	3.647020e-02
9045.16      	4.062280e-02
10036.9      	5.441430e-02
11143.6      	6.515130e-02
12377.3      	6.456830e-02
13631.9      	5.109510e-02
14702.1      	4.106510e-02
15858.5      	4.274110e-02
17141        	5.423380e-02
18526.2      	5.989500e-02
19857.1      	5.246720e-02
21024.5      	4.332770e-02
22281.7      	4.522370e-02
23617.5      	4.601040e-02
25077.6      	4.963790e-02
26649.9      	4.984090e-02
27977.7      	4.492290e-02
29305.5      	4.705970e-02
30769.5      	5.024460e-02
32273        	4.675860e-02
33913.2      	4.611550e-02
35331.8      	3.858270e-02
36712        	4.104300e-02
38217.7      	4.956280e-02
39823.8      	5.138580e-02
41548.8      	4.803790e-02
43273.9      	4.022890e-02
44761        	3.839480e-02
46303.2      	4.235270e-02
47973.9      	4.837010e-02
49720.5      	5.097330e-02
51554.5      	4.389000e-02
53138.4      	3.480990e-02
54722.2      	3.674900e-02
56389.5      	4.303400e-02
58154.8      	4.639130e-02
60037.8      	4.711000e-02
61920.8      	4.287800e-02
63552.8      	3.611410e-02
65310.3      	3.785970e-02
67067.7      	4.010680e-02
69001        	4.513740e-02
70934.2      	4.203390e-02
72652.6      	3.711160e-02
74371        	3.771850e-02
76089.5      	3.833370e-02
77807.9      	3.695380e-02
79526.3      	3.568530e-02
81244.7      	3.383050e-02
82963.2      	3.216390e-02
84681.6      	3.366450e-02
86400        	3.589300e-02
88320        	4.182690e-02
90284.7      	4.158970e-02
92249.3      	3.736580e-02
94214        	3.278290e-02
96178.6      	3.284870e-02
98143.3      	3.590160e-02
100108       	3.821420e-02
102073       	3.998220e-02
104037       	3.922680e-02
106002       	3.480150e-02
107967       	3.215320e-02
109931       	3.230550e-02
111896       	3.368740e-02
113860       	3.508290e-02
115825       	3.499080e-02
117790       	3.417350e-02
119754       	3.335790e-02
121719       	3.323270e-02
123684       	3.332400e-02
125648       	3.295580e-02
127613       	3.314390e-02
129578       	3.225240e-02
131542       	2.983280e-02
133507       	2.879990e-02
135472       	3.035060e-02
137436       	3.207030e-02
139401       	3.360530e-02
141366       	3.339350e-02
143330       	3.206120e-02
145295       	2.986630e-02
147260       	2.793430e-02
149224       	2.670600e-02
151189       	2.768430e-02
153153       	2.944290e-02
155118       	3.097560e-02
157083       	3.188690e-02
159047       	3.104450e-02
161012       	2.844840e-02
162977       	2.741710e-02
164941       	2.736800e-02
166906       	2.739330e-02
168871       	2.791840e-02
170835       	2.809300e-02
172800       	2.832340e-02
174764       	2.814370e-02
176727       	2.720610e-02
178691       	2.650840e-02
180655       	2.660880e-02
182618       	2.718830e-02
184582       	2.763230e-02
186545       	2.825610e-02
188509       	2.790820e-02
190473       	2.653450e-02
192436       	2.493340e-02
194400       	2.398740e-02
196364       	2.456440e-02
198327       	2.491740e-02
200291       	2.602220e-02
202255       	2.700810e-02
204218       	2.697660e-02
206182       	2.724600e-02
208145       	2.662680e-02
210109       	2.492310e-02
212073       	2.329540e-02
214036       	2.307320e-02
216000       	2.346600e-02
217964       	2.407640e-02
219927       	2.496770e-02
221891       	2.554730e-02
223855       	2.558740e-02
225818       	2.511060e-02
227782       	2.405950e-02
229745       	2.347050e-02
231709       	2.356930e-02
233673       	2.329690e-02
235636       	2.364520e-02
237600       	2.386930e-02
239564       	2.392810e-02
241527       	2.395700e-02
243491       	2.381710e-02
245455       	2.283440e-02
247418       	2.184660e-02
249382       	2.183450e-02
251345       	2.247390e-02
253309       	2.281210e-02
255273       	2.338490e-02
257236       	2.391660e-02
259200       	2.409680e-02
261164       	2.369240e-02
263127       	2.305410e-02
265091       	2.203750e-02
267055       	2.082520e-02
269018       	2.062450e-02
270982       	2.026330e-02
272945       	2.126740e-02
274909       	2.197860e-02
276873       	2.252650e-02
278836       	2.292170e-02
280800       	2.311030e-02
282764       	2.292940e-02
284727       	2.220640e-02
286691       	2.112880e-02
288655       	2.072890e-02
290618       	2.051330e-02
292582       	2.031100e-02
294545       	2.018870e-02
296509       	2.072890e-02
298473       	2.124950e-02
300436       	2.159910e-02
302400       	2.166950e-02
304364       	2.150650e-02
306327       	2.082880e-02
308291       	2.009910e-02
310255       	2.009660e-02
312218       	2.016320e-02
314182       	2.053670e-02
316145       	2.092450e-02
318109       	2.080300e-02
320073       	2.076620e-02
322036       	2.047620e-02
324000       	2.041640e-02
325964       	2.009100e-02
327927       	1.969220e-02
329891       	1.908790e-02
331855       	1.889130e-02
333818       	1.895310e-02
335782       	1.903170e-02
337745       	1.975220e-02
339709       	2.048290e-02
341673       	2.077810e-02
343636       	2.093260e-02
345600       	2.095170e-02
347564       	2.040430e-02
349527       	1.949920e-02
351491       	1.849940e-02
353455       	1.784900e-02
355418       	1.798220e-02
357382       	1.807770e-02
359345       	1.842220e-02
361309       	1.863480e-02
363273       	1.877880e-02
365236       	1.941860e-02
367200       	1.998980e-02
369164       	2.018710e-02
371127       	2.005350e-02
373091       	1.980500e-02
375055       	1.915550e-02
377018       	1.835930e-02
378982       	1.781850e-02
380945       	1.748940e-02
382909       	1.735400e-02
384873       	1.786370e-02
386836       	1.821610e-02
388800       	1.835970e-02
390764       	1.855690e-02
392727       	1.861360e-02
394691       	1.867270e-02
396655       	1.868870e-02
398618       	1.847190e-02
400582       	1.813380e-02
402545       	1.793790e-02
404509       	1.791000e-02
406473       	1.793050e-02
408436       	1.785050e-02
410400       	1.776720e-02
412364       	1.781290e-02
414327       	1.794260e-02
416291       	1.801060e-02
418255       	1.799560e-02
420218       	1.787680e-02
422182       	1.757740e-02
424145       	1.720050e-02
426109       	1.672430e-02
428073       	1.662790e-02
430036       	1.695980e-02
432000       	1.716190e-02
433964       	1.741760e-02
435927       	1.769660e-02
437891       	1.782490e-02
439855       	1.805140e-02
441818       	1.822180e-02
443782       	1.802480e-02
445745       	1.772030e-02
447709       	1.737240e-02
449673       	1.704270e-02
451636       	1.651550e-02
453600       	1.593630e-02
455564       	1.573550e-02
457527       	1.567120e-02
459491       	1.593860e-02
461455       	1.626200e-02
463418       	1.671160e-02
465382       	1.713570e-02
467345       	1.733040e-02
469309       	1.747690e-02
471273       	1.787840e-02
473236       	1.796160e-02
475200       	1.770170e-02
477164       	1.718830e-02
479127       	1.672110e-02
481091       	1.605730e-02
483055       	1.541500e-02
485018       	1.524120e-02
486982       	1.510180e-02
488945       	1.525710e-02
490909       	1.553430e-02
492873       	1.573660e-02
494836       	1.612190e-02
496800       	1.656850e-02
498764       	1.681970e-02
500727       	1.693970e-02
502691       	1.726710e-02
504655       	1.746300e-02
506618       	1.736020e-02
508582       	1.696580e-02
510545       	1.648290e-02
512509       	1.594630e-02
514473       	1.541260e-02
516436       	1.489550e-02
518400       	1.463980e-02
520364       	1.451700e-02
522327       	1.462810e-02
524291       	1.486540e-02
526255       	1.504160e-02
528218       	1.521890e-02
530182       	1.541050e-02
532145       	1.559400e-02
534109       	1.570860e-02
536073       	1.598710e-02
538036       	1.623740e-02
540000       	1.624090e-02
541964       	1.604380e-02
543927       	1.576360e-02
545891       	1.554330e-02
547855       	1.531960e-02
549818       	1.510990e-02
551782       	1.496150e-02
553745       	1.490000e-02
555709       	1.494060e-02
557673       	1.534270e-02
559636       	1.564530e-02
561600       	1.606060e-02
563564       	1.624910e-02
565527       	1.627710e-02
567491       	1.623100e-02
569455       	1.608540e-02
571418       	1.617370e-02
573382       	1.669370e-02
575345       	1.741210e-02
577309       	1.810570e-02
579273       	1.867370e-02
581236       	1.904620e-02
583200       	1.928330e-02
585164       	1.905060e-02
587127       	1.853560e-02
589091       	1.832230e-02
591055       	1.846540e-02
593018       	1.894740e-02
594982       	1.983490e-02
596945       	2.094080e-02
598516       	1.756210e-02
600087       	1.710090e-02
601265       	1.290230e-02
602444       	1.335650e-02
603622       	1.388260e-02
604800       	1.452010e-02
606034       	1.583530e-02
607251       	1.603730e-02
608468       	1.591500e-02
609667       	1.512110e-02
610848       	1.516510e-02
612048       	1.588330e-02
613212       	1.613070e-02
614393       	1.681480e-02
615540       	1.664760e-02
616704       	1.676680e-02
617832       	1.571630e-02
618961       	1.536030e-02
620090       	1.552380e-02
621201       	1.573540e-02
622312       	1.624850e-02
623460       	1.713280e-02
624589       	1.701590e-02
625718       	1.680210e-02
626847       	1.607480e-02
627996       	1.556700e-02
629189       	1.607700e-02
630405       	1.671140e-02
631645       	1.752100e-02
632913       	1.845400e-02
634208       	1.917830e-02
635533       	1.939020e-02
636859       	1.836380e-02
638184       	1.789530e-02
639389       	1.680610e-02
640515       	1.624260e-02
641642       	1.683080e-02
642768       	1.723130e-02
643894       	1.761550e-02
645021       	1.755200e-02
646094       	1.624710e-02
647168       	1.568480e-02
648269       	1.611500e-02
649399       	1.682630e-02
650444       	1.614860e-02
651489       	1.657970e-02
652562       	1.747930e-02
653636       	1.769850e-02
654740       	1.818120e-02
655782       	1.675620e-02
656794       	1.571780e-02
657837       	1.603700e-02
658879       	1.616270e-02
659922       	1.657740e-02
661000       	1.757620e-02
662042       	1.748860e-02
663083       	1.779610e-02
664125       	1.769010e-02
665166       	1.724340e-02
666251       	1.705070e-02
667335       	1.627150e-02
668420       	1.630160e-02
669559       	1.724440e-02
670698       	1.784520e-02
671837       	1.832020e-02
672976       	1.877420e-02
674115       	1.881540e-02
675254       	1.847240e-02
676393       	1.773960e-02
677451       	1.572580e-02
678433       	1.468480e-02
679415       	1.488240e-02
680397       	1.510770e-02
681477       	1.710660e-02
682558       	1.765360e-02
683638       	1.805120e-02
684718       	1.822410e-02
685799       	1.772350e-02
686879       	1.683500e-02
687959       	1.586410e-02
689039       	1.576260e-02
690120       	1.617750e-02
691200       	1.696830e-02
692400       	1.983750e-02
693536       	1.983340e-02
694614       	1.947200e-02
695678       	1.889850e-02
696756       	1.805500e-02
697848       	1.653110e-02
698971       	1.610560e-02
700111       	1.703970e-02
701267       	1.819740e-02
702442       	1.992880e-02
703635       	2.128660e-02
704847       	2.200850e-02
706080       	2.161770e-02
707293       	1.942860e-02
708505       	1.686640e-02
709739       	1.725660e-02
710851       	1.709900e-02
711894       	1.723640e-02
712937       	1.824170e-02
713980       	1.878710e-02
715040       	1.901350e-02
716119       	1.843470e-02
717217       	1.682890e-02
718335       	1.606420e-02
719475       	1.619970e-02
720637       	1.723840e-02
721824       	1.882280e-02
723036       	2.097560e-02
724223       	2.041530e-02
725409       	1.953760e-02
726623       	1.911600e-02
727731       	1.772160e-02
728770       	1.695810e-02
729809       	1.703220e-02
730848       	1.720210e-02
731910       	1.765620e-02
732998       	1.779790e-02
734086       	1.727370e-02
735202       	1.771550e-02
736348       	1.905700e-02
737493       	1.990830e-02
738673       	2.076940e-02
739853       	2.084410e-02
741032       	1.990250e-02
742212       	1.824860e-02
743432       	1.863360e-02
744571       	1.851190e-02
745603       	1.784330e-02
746603       	1.802630e-02
747603       	1.789610e-02
748603       	1.758620e-02
749639       	1.724020e-02
750674       	1.715250e-02
751710       	1.739140e-02
752788       	1.815720e-02
753867       	1.846040e-02
754997       	1.879530e-02
756128       	1.805410e-02
757258       	1.748070e-02
758388       	1.779270e-02
759518       	1.878170e-02
760648       	1.957750e-02
761708       	1.889330e-02
762701       	1.730350e-02
763694       	1.669540e-02
764687       	1.634870e-02
765681       	1.624240e-02
766674       	1.667010e-02
767667       	1.699620e-02
768660       	1.702600e-02
769654       	1.657120e-02
770647       	1.604120e-02
771640       	1.620050e-02
772634       	1.655330e-02
773627       	1.718600e-02
774620       	1.772670e-02
775613       	1.795960e-02
776607       	1.757630e-02
777600       	1.654170e-02
778708       	1.856160e-02
779735       	1.769640e-02
780727       	1.754800e-02
781718       	1.760510e-02
782709       	1.746560e-02
783713       	1.737990e-02
784729       	1.688500e-02
785759       	1.784180e-02
786802       	1.842590e-02
787874       	1.961570e-02
788962       	1.965320e-02
790065       	1.968160e-02
791169       	1.878470e-02
792256       	1.883750e-02
793327       	1.898970e-02
794414       	1.976520e-02
795484       	1.911340e-02
796538       	1.815370e-02
797545       	1.692210e-02
798537       	1.719980e-02
799529       	1.762230e-02
800521       	1.814660e-02
801529       	1.851140e-02
802553       	1.807030e-02
803594       	1.785280e-02
804618       	1.793850e-02
805642       	1.835670e-02
806666       	1.873680e-02
807747       	1.956880e-02
808789       	1.787240e-02
809831       	1.743120e-02
810816       	1.735070e-02
811819       	1.792730e-02
812823       	1.845140e-02
813867       	1.856260e-02
814870       	1.723690e-02
815852       	1.752020e-02
816815       	1.759330e-02
817778       	1.801790e-02
818762       	1.840970e-02
819745       	1.788990e-02
820751       	1.824850e-02
821691       	1.705640e-02
822631       	1.760050e-02
823593       	1.807970e-02
824579       	1.781920e-02
825564       	1.728520e-02
826525       	1.706180e-02
827418       	1.668540e-02
828332       	1.715710e-02
829271       	1.794500e-02
830209       	1.741630e-02
831203       	1.747950e-02
832090       	1.647370e-02
832976       	1.703080e-02
833862       	1.722460e-02
834776       	1.781490e-02
835718       	1.792440e-02
836631       	1.719540e-02
837486       	1.584910e-02
838315       	1.558190e-02
839171       	1.654180e-02
840058       	1.744290e-02
840913       	1.617800e-02
841801       	1.589670e-02
842623       	1.479750e-02
843445       	1.533200e-02
844267       	1.569760e-02
845089       	1.549980e-02
845949       	1.516850e-02
846809       	1.500860e-02
847627       	1.488530e-02
848407       	1.453310e-02
849186       	1.494950e-02
850009       	1.572490e-02
850832       	1.503990e-02
851607       	1.380970e-02
852382       	1.393060e-02
853156       	1.457500e-02
853931       	1.491380e-02
854650       	1.391270e-02
855369       	1.355260e-02
856154       	1.401650e-02
856938       	1.455800e-02
857645       	1.354000e-02
858351       	1.402230e-02
859057       	1.433810e-02
859763       	1.421660e-02
860469       	1.392920e-02
861175       	1.394170e-02
861882       	1.399790e-02
862411       	1.129840e-02
862808       	8.887730e-03
863106       	6.865210e-03
863404       	6.899350e-03
863702       	6.941340e-03
864000       	6.918900e-03
864301       	6.891670e-03
864591       	6.492600e-03
864872       	6.090050e-03
865144       	5.674200e-03
865408       	5.448780e-03
865668       	5.349890e-03
865924       	5.353700e-03
866174       	5.332620e-03
866416       	5.289440e-03
866652       	5.288250e-03
866887       	5.321110e-03
867121       	5.347420e-03
867355       	5.374940e-03
867589       	5.393110e-03
867825       	5.442480e-03
868063       	5.469430e-03
868302       	5.477760e-03
868543       	5.453880e-03
868788       	5.452430e-03
869035       	5.454890e-03
869285       	5.455200e-03
869538       	5.498500e-03
869794       	5.641070e-03
870052       	5.779370e-03
870312       	5.886370e-03
870574       	5.956030e-03
870836       	5.963070e-03
871098       	5.975180e-03
871362       	5.995120e-03
871625       	6.006950e-03
871890       	6.063120e-03
872155       	6.135910e-03
872420       	6.176680e-03
872686       	6.212640e-03
872953       	6.208240e-03
873214       	6.031410e-03
873470       	5.861430e-03
873724       	5.710740e-03
873977       	5.635430e-03
874229       	5.596080e-03
874481       	5.550200e-03
874733       	5.581830e-03
874986       	5.649670e-03
875240       	5.707750e-03
875495       	5.759780e-03
875751       	5.839850e-03
876006       	5.934650e-03
876263       	6.030640e-03
876519       	6.120670e-03
876776       	6.176110e-03
877033       	6.208600e-03
877291       	6.197040e-03
877548       	6.155090e-03
877806       	6.078210e-03
878064       	5.997570e-03
878322       	5.869040e-03
878581       	5.795100e-03
878840       	5.779420e-03
879099       	5.742640e-03
879358       	5.715940e-03
879619       	5.752520e-03
879879       	5.806200e-03
880139       	5.872350e-03
880400       	5.946960e-03
880662       	6.020130e-03
880923       	6.066170e-03
881185       	6.115840e-03
881447       	6.114920e-03
881710       	6.106440e-03
881973       	6.084170e-03
882237       	6.029890e-03
882501       	5.969950e-03
882765       	5.853600e-03
883030       	5.761960e-03
883295       	5.689480e-03
883562       	5.696660e-03
883827       	5.697550e-03
884091       	5.689790e-03
884354       	5.704690e-03
884615       	5.710800e-03
884875       	5.754590e-03
885133       	5.794870e-03
885390       	5.834780e-03
885645       	5.826810e-03
885899       	5.815600e-03
886152       	5.803030e-03
886404       	5.765100e-03
886655       	5.699370e-03
886905       	5.610930e-03
887154       	5.514080e-03
887402       	5.430820e-03
887649       	5.323050e-03
887896       	5.323570e-03
888142       	5.296720e-03
888388       	5.312540e-03
888633       	5.370630e-03
888879       	5.448490e-03
889123       	5.493760e-03
889367       	5.586170e-03
889610       	5.636800e-03
889853       	5.686160e-03
890095       	5.699620e-03
890337       	5.702150e-03
890580       	5.705710e-03
890821       	5.682380e-03
891062       	5.664360e-03
891303       	5.614570e-03
891544       	5.534040e-03
891784       	5.465670e-03
892024       	5.383620e-03
892263       	5.262890e-03
892502       	5.178290e-03
892742       	5.135370e-03
892981       	5.140010e-03
893219       	5.111370e-03
893457       	5.106660e-03
893696       	5.106930e-03
893934       	5.110960e-03
894171       	5.111220e-03
894409       	5.146070e-03
894646       	5.177820e-03
894883       	5.202500e-03
895120       	5.214840e-03
895358       	5.213720e-03
895595       	5.199960e-03
895832       	5.173480e-03
896068       	5.109140e-03
896304       	5.048150e-03
896541       	4.966840e-03
896777       	4.869960e-03
897013       	4.781770e-03
897249       	4.732390e-03
897486       	4.690630e-03
897722       	4.678450e-03
897958       	4.662080e-03
898194       	4.680690e-03
898430       	4.696200e-03
898667       	4.737150e-03
898902       	4.760160e-03
899137       	4.806040e-03
899372       	4.856360e-03
899607       	4.891440e-03
899842       	4.917600e-03
900078       	4.942430e-03
900313       	4.961470e-03
900548       	4.961100e-03
900783       	4.939460e-03
901018       	4.924650e-03
901253       	4.926190e-03
901489       	4.922300e-03
901724       	4.936890e-03
901959       	4.880490e-03
902194       	4.826720e-03
902429       	4.772140e-03
902664       	4.707210e-03
902899       	4.667620e-03
903135       	4.654790e-03
903370       	4.655150e-03
903605       	4.647760e-03
903840       	4.643890e-03
904076       	4.676770e-03
904313       	4.677580e-03
904549       	4.693160e-03
904785       	4.702290e-03
905022       	4.712890e-03
905258       	4.749370e-03
905494       	4.784580e-03
905731       	4.834230e-03
905967       	4.839990e-03
906203       	4.847490e-03
906440       	4.861910e-03
906676       	4.885580e-03
906913       	4.874700e-03
907149       	4.868170e-03
907385       	4.849150e-03
907622       	4.812020e-03
907858       	4.756550e-03
908094       	4.694450e-03
908331       	4.662150e-03
908567       	4.679790e-03
908803       	4.669660e-03
909040       	4.657910e-03
909276       	4.651040e-03
909512       	4.640820e-03
909749       	4.644980e-03
909985       	4.639840e-03
910221       	4.643940e-03
910458       	4.646750e-03
910694       	4.641550e-03
910930       	4.649970e-03
911167       	4.664000e-03
911403       	4.683500e-03
911639       	4.694560e-03
911876       	4.695230e-03
912112       	4.692910e-03
912348       	4.704540e-03
912585       	4.701210e-03
912821       	4.682350e-03
913057       	4.654140e-03
913294       	4.613690e-03
913530       	4.587290e-03
913767       	4.528480e-03
914003       	4.503140e-03
914239       	4.482300e-03
914476       	4.460350e-03
914710       	4.446080e-03
914945       	4.468430e-03
915180       	4.480780e-03
915415       	4.495450e-03
915650       	4.501760e-03
915884       	4.518950e-03
916118       	4.525680e-03
916351       	4.516530e-03
916584       	4.531110e-03
916817       	4.556430e-03
917050       	4.586540e-03
917284       	4.611550e-03
917517       	4.630090e-03
917748       	4.615950e-03
917980       	4.608160e-03
918212       	4.589590e-03
918443       	4.559040e-03
918675       	4.518900e-03
918906       	4.467600e-03
919138       	4.403300e-03
919369       	4.330780e-03
919599       	4.223730e-03
919829       	4.162070e-03
920059       	4.149790e-03
920289       	4.157690e-03
920517       	4.143580e-03
920745       	4.154870e-03
920971       	4.133700e-03
921198       	4.166650e-03
921424       	4.195670e-03
921649       	4.220570e-03
921873       	4.257120e-03
922098       	4.299410e-03
922321       	4.293100e-03
922544       	4.322530e-03
922767       	4.349070e-03
922988       	4.334800e-03
923209       	4.347580e-03
923430       	4.350310e-03
923651       	4.344520e-03
923870       	4.294460e-03
924089       	4.292020e-03
924309       	4.309810e-03
924528       	4.312700e-03
924747       	4.311710e-03
924966       	4.303250e-03
925184       	4.249960e-03
925401       	4.221120e-03
925619       	4.193590e-03
925836       	4.158200e-03
926053       	4.138340e-03
926271       	4.108840e-03
926488       	4.085000e-03
926704       	4.040920e-03
926919       	4.041700e-03
927134       	4.047100e-03
927350       	4.033860e-03
927565       	4.021410e-03
927781       	4.001650e-03
927996       	3.990070e-03
928211       	3.988440e-03
928427       	3.992880e-03
928642       	3.997110e-03
928856       	3.971630e-03
929069       	4.004830e-03
929282       	4.041300e-03
929496       	4.076740e-03
929709       	4.105860e-03
929922       	4.139260e-03
930135       	4.154930e-03
930349       	4.170160e-03
930562       	4.182170e-03
930775       	4.184670e-03
930989       	4.177020e-03
931200       	4.117810e-03
931411       	4.094650e-03
931622       	4.068590e-03
931833       	4.033790e-03
932044       	4.001880e-03
932255       	3.980260e-03
932466       	3.982110e-03
932677       	4.003460e-03
932888       	4.017210e-03
933099       	4.026940e-03
933310       	4.030250e-03
933521       	4.035250e-03
933729       	3.990850e-03
933937       	3.991590e-03
934146       	4.002430e-03
934354       	4.013670e-03
934563       	4.028520e-03
934771       	4.042920e-03
934979       	4.039740e-03
935188       	4.039840e-03
935396       	4.033860e-03
935605       	4.021520e-03
935813       	4.002480e-03
936021       	3.987420e-03
936230       	3.964990e-03
936435       	3.887700e-03
936640       	3.870260e-03
936846       	3.850840e-03
937051       	3.837180e-03
937257       	3.818570e-03
937462       	3.797130e-03
937667       	3.771840e-03
937873       	3.743590e-03
938078       	3.727060e-03
938283       	3.717200e-03
938489       	3.707900e-03
938694       	3.696000e-03
938899       	3.697360e-03
939105       	3.697830e-03
939310       	3.697120e-03
939516       	3.696460e-03
939721       	3.696040e-03
939926       	3.705060e-03
940128       	3.650860e-03
940329       	3.657910e-03
940531       	3.670210e-03
940732       	3.686410e-03
940933       	3.713120e-03
941135       	3.738770e-03
941336       	3.761940e-03
941538       	3.781860e-03
941739       	3.804940e-03
941940       	3.824540e-03
942142       	3.848430e-03
942343       	3.866320e-03
942545       	3.877810e-03
942746       	3.891600e-03
942948       	3.892720e-03
943149       	3.895740e-03
943350       	3.892780e-03
943552       	3.889480e-03
943753       	3.884170e-03
943955       	3.871930e-03
944156       	3.862240e-03
944357       	3.843670e-03
944559       	3.822620e-03
944760       	3.799810e-03
944962       	3.762410e-03
945163       	3.722840e-03
945365       	3.682180e-03
945566       	3.667160e-03
945767       	3.652790e-03
945969       	3.651690e-03
946170       	3.637720e-03
946372       	3.631270e-03
946573       	3.618420e-03
946774       	3.615890e-03
946976       	3.608080e-03
947177       	3.612630e-03
947379       	3.626250e-03
947580       	3.652210e-03
947768       	3.448900e-03
947956       	3.466420e-03
948144       	3.484570e-03
948332       	3.505750e-03
948520       	3.532580e-03
948708       	3.563990e-03
948896       	3.591820e-03
949084       	3.614810e-03
949272       	3.632970e-03
949460       	3.647460e-03
949648       	3.660460e-03
949836       	3.675050e-03
950024       	3.685110e-03
950212       	3.688970e-03
950400       	3.694650e-03
950599       	3.913140e-03
950797       	3.920690e-03
950995       	3.928340e-03
951193       	3.937330e-03
951391       	3.934160e-03
951589       	3.920320e-03
951787       	3.907170e-03
951984       	3.887580e-03
952182       	3.860800e-03
952379       	3.824290e-03
952577       	3.805700e-03
952774       	3.797370e-03
952971       	3.790350e-03
953168       	3.776520e-03
953365       	3.752460e-03
953562       	3.747560e-03
953759       	3.737960e-03
953955       	3.729420e-03
954152       	3.717120e-03
954349       	3.714430e-03
954546       	3.707930e-03
954742       	3.690720e-03
954938       	3.686420e-03
955135       	3.681850e-03
955331       	3.672380e-03
955527       	3.660820e-03
955724       	3.655020e-03
955920       	3.655230e-03
956116       	3.649340e-03
956312       	3.631590e-03
956508       	3.622330e-03
956704       	3.618790e-03
956900       	3.624940e-03
957095       	3.632020e-03
957291       	3.638430e-03
957487       	3.633950e-03
957682       	3.636140e-03
957877       	3.632730e-03
958073       	3.622680e-03
958268       	3.606790e-03
958463       	3.576580e-03
958658       	3.552920e-03
958853       	3.529490e-03
959048       	3.510400e-03
959242       	3.498770e-03
959437       	3.487180e-03
959631       	3.483880e-03
959826       	3.483610e-03
960020       	3.483900e-03
960214       	3.496800e-03
960409       	3.510890e-03
960603       	3.525160e-03
960796       	3.533570e-03
960990       	3.541980e-03
961184       	3.537890e-03
961377       	3.538420e-03
961570       	3.541090e-03
961763       	3.543700e-03
961956       	3.558970e-03
962149       	3.562750e-03
962342       	3.561460e-03
962534       	3.567590e-03
962726       	3.571190e-03
962918       	3.567910e-03
963110       	3.568200e-03
963302       	3.562870e-03
963494       	3.559810e-03
963685       	3.544950e-03
963877       	3.533700e-03
964068       	3.517230e-03
964259       	3.498780e-03
964450       	3.491700e-03
964641       	3.490500e-03
964832       	3.482260e-03
965022       	3.468200e-03
965213       	3.457780e-03
965403       	3.448540e-03
965593       	3.438380e-03
965783       	3.409910e-03
965973       	3.392240e-03
966163       	3.376140e-03
966352       	3.349030e-03
966542       	3.328080e-03
966731       	3.318330e-03
966920       	3.318180e-03